[ defaults ]
; nbfunc        comb-rule       gen-pairs       fudgeLJ fudgeQQ
1               3               yes             0.5     0.5
; GENERATED BY LigParGen Server
; Jorgensen Lab @ Yale University
;
[ atomtypes ]
  opls_814  C814    12.0110     0.000    A    3.50000E-01   2.76144E-01
  opls_824  H824     1.0080     0.000    A    2.50000E-01   1.25520E-01
  opls_805  C805    12.0110     0.000    A    3.50000E-01   2.76144E-01
  opls_818  C818    12.0110     0.000    A    3.50000E-01   2.76144E-01
  opls_841  H841     1.0080     0.000    A    0.00000E+00   0.00000E+00
  opls_836  H836     1.0080     0.000    A    2.50000E-01   1.25520E-01
  opls_834  H834     1.0080     0.000    A    2.50000E-01   1.25520E-01
  opls_828  H828     1.0080     0.000    A    2.50000E-01   1.25520E-01
  opls_837  H837     1.0080     0.000    A    0.00000E+00   0.00000E+00
  opls_812  C812    12.0110     0.000    A    3.50000E-01   2.76144E-01
  opls_806  O806    15.9990     0.000    A    2.90000E-01   5.85760E-01
  opls_817  O817    15.9990     0.000    A    3.12000E-01   7.11280E-01
  opls_802  C802    12.0110     0.000    A    3.50000E-01   2.76144E-01
  opls_827  H827     1.0080     0.000    A    2.50000E-01   1.25520E-01
  opls_809  C809    12.0110     0.000    A    3.50000E-01   2.76144E-01
  opls_838  H838     1.0080     0.000    A    2.50000E-01   1.25520E-01
  opls_844  H844     1.0080     0.000    A    2.50000E-01   1.25520E-01
  opls_807  C807    12.0110     0.000    A    3.50000E-01   2.76144E-01
  opls_839  H839     1.0080     0.000    A    0.00000E+00   0.00000E+00
  opls_821  O821    15.9990     0.000    A    3.12000E-01   7.11280E-01
  opls_830  H830     1.0080     0.000    A    2.50000E-01   1.25520E-01
  opls_819  O819    15.9990     0.000    A    3.12000E-01   7.11280E-01
  opls_842  H842     1.0080     0.000    A    2.50000E-01   1.25520E-01
  opls_826  H826     1.0080     0.000    A    2.50000E-01   1.25520E-01
  opls_815  O815    15.9990     0.000    A    3.12000E-01   7.11280E-01
  opls_831  H831     1.0080     0.000    A    2.50000E-01   1.25520E-01
  opls_822  C822    12.0110     0.000    A    3.50000E-01   2.76144E-01
  opls_832  H832     1.0080     0.000    A    2.50000E-01   1.25520E-01
  opls_800  C800    12.0110     0.000    A    3.50000E-01   2.76144E-01
  opls_843  H843     1.0080     0.000    A    0.00000E+00   0.00000E+00
  opls_846  H846     1.0080     0.000    A    2.50000E-01   1.25520E-01
  opls_816  C816    12.0110     0.000    A    3.50000E-01   2.76144E-01
  opls_833  H833     1.0080     0.000    A    2.50000E-01   1.25520E-01
  opls_835  H835     1.0080     0.000    A    0.00000E+00   0.00000E+00
  opls_808  O808    15.9990     0.000    A    2.90000E-01   5.85760E-01
  opls_820  C820    12.0110     0.000    A    3.50000E-01   2.76144E-01
  opls_825  H825     1.0080     0.000    A    2.50000E-01   1.25520E-01
  opls_810  C810    12.0110     0.000    A    3.50000E-01   2.76144E-01
  opls_813  O813    15.9990     0.000    A    3.12000E-01   7.11280E-01
  opls_801  C801    12.0110     0.000    A    3.50000E-01   2.76144E-01
  opls_840  H840     1.0080     0.000    A    2.50000E-01   1.25520E-01
  opls_804  O804    15.9990     0.000    A    2.90000E-01   5.85760E-01
  opls_803  O803    15.9990     0.000    A    3.12000E-01   7.11280E-01
  opls_845  H845     1.0080     0.000    A    0.00000E+00   0.00000E+00
  opls_811  O811    15.9990     0.000    A    3.12000E-01   7.11280E-01
  opls_847  H847     1.0080     0.000    A    0.00000E+00   0.00000E+00
  opls_823  O823    15.9990     0.000    A    3.12000E-01   7.11280E-01
  opls_829  H829     1.0080     0.000    A    0.00000E+00   0.00000E+00
OWT4 OW 8 15.999 0.000 A 3.16500e-01 7.73202e-01
 HW   HW 1 1.008  0.520 A 0.00000e+00 0.00000e+00
 IW   MW 0 0.00000 -1.040 D 0.00000e+00 0.00000e+00
[ moleculetype ]
; Name               nrexcl
THR                   3
[ atoms ]
;   nr       type  resnr residue  atom   cgnr     charge       mass  
     1   opls_800      1    UNK   C00      1    -0.2742    12.0110 
     2   opls_801      1    UNK   C01      1     0.0693    12.0110 
     3   opls_802      1    UNK   C02      1     0.1088    12.0110 
     4   opls_803      1    UNK   O03      1    -0.6928    15.9990 
     5   opls_804      1    UNK   O04      1    -0.4227    15.9990 
     6   opls_805      1    UNK   C05      1     0.2054    12.0110 
     7   opls_806      1    UNK   O06      1    -0.3507    15.9990 
     8   opls_807      1    UNK   C07      1     0.1847    12.0110 
     9   opls_808      1    UNK   O08      1    -0.4181    15.9990 
    10   opls_809      1    UNK   C09      1    -0.0356    12.0110 
    11   opls_810      1    UNK   C0A      1      0.112    12.0110 
    12   opls_811      1    UNK   O0B      1    -0.6788    15.9990 
    13   opls_812      1    UNK   C0C      1     0.1023    12.0110 
    14   opls_813      1    UNK   O0D      1    -0.7054    15.9990 
    15   opls_814      1    UNK   C0E      1     0.1266    12.0110 
    16   opls_815      1    UNK   O0F      1    -0.6565    15.9990 
    17   opls_816      1    UNK   C0G      1     0.1252    12.0110 
    18   opls_817      1    UNK   O0H      1    -0.6789    15.9990 
    19   opls_818      1    UNK   C0I      1     0.1227    12.0110 
    20   opls_819      1    UNK   O0J      1    -0.6663    15.9990 
    21   opls_820      1    UNK   C0K      1     0.1358    12.0110 
    22   opls_821      1    UNK   O0M      1    -0.6549    15.9990 
    23   opls_822      1    UNK   C0N      1     0.1104    12.0110 
    24   opls_823      1    UNK   O0O      1    -0.7188    15.9990 
    25   opls_824      1    UNK   H0P      1     0.1041     1.0080 
    26   opls_825      1    UNK   H0Q      1     0.1041     1.0080 
    27   opls_826      1    UNK   H0R      1     0.1041     1.0080 
    28   opls_827      1    UNK   H0S      1     0.1188     1.0080 
    29   opls_828      1    UNK   H0T      1     0.1188     1.0080 
    30   opls_829      1    UNK   H0U      1     0.4385     1.0080 
    31   opls_830      1    UNK   H0V      1     0.1032     1.0080 
    32   opls_831      1    UNK   H0W      1     0.1677     1.0080 
    33   opls_832      1    UNK   H0X      2     0.1427     1.0080 
    34   opls_833      1    UNK   H0Y      2      0.109     1.0080 
    35   opls_834      1    UNK   H0Z      2      0.109     1.0080 
    36   opls_835      1    UNK   H10      2     0.4198     1.0080 
    37   opls_836      1    UNK   H11      2     0.1394     1.0080 
    38   opls_837      1    UNK   H12      2      0.427     1.0080 
    39   opls_838      1    UNK   H13      2     0.1591     1.0080 
    40   opls_839      1    UNK   H14      2     0.4286     1.0080 
    41   opls_840      1    UNK   H15      2     0.1721     1.0080 
    42   opls_841      1    UNK   H16      2     0.4326     1.0080 
    43   opls_842      1    UNK   H17      2     0.1605     1.0080 
    44   opls_843      1    UNK   H18      2     0.4354     1.0080 
    45   opls_844      1    UNK   H19      2     0.1376     1.0080 
    46   opls_845      1    UNK   H1A      2     0.4371     1.0080 
    47   opls_846      1    UNK   H1B      2     0.1258     1.0080 
    48   opls_847      1    UNK   H1C      2     0.4555     1.0080 
[ bonds ]
    2     1     1      0.1529 224262.400
    3     2     1      0.1529 224262.400
    4     3     1      0.1410 267776.000
    5     2     1      0.1410 267776.000
    6     5     1      0.1380 267776.000
    7     6     1      0.1380 267776.000
    8     7     1      0.1380 267776.000
    9     8     1      0.1380 267776.000
   10     9     1      0.1410 267776.000
   11    10     1      0.1529 224262.400
   12    11     1      0.1410 267776.000
   13    10     1      0.1529 224262.400
   14    13     1      0.1410 267776.000
   15    13     1      0.1529 224262.400
   16    15     1      0.1410 267776.000
   17     8     1      0.1529 224262.400
   18    17     1      0.1410 267776.000
   19     6     1      0.1529 224262.400
   20    19     1      0.1410 267776.000
   21    19     1      0.1529 224262.400
   22    21     1      0.1410 267776.000
   23     2     1      0.1529 224262.400
   24    23     1      0.1410 267776.000
   25     1     1      0.1090 284512.000
   26     1     1      0.1090 284512.000
   27     1     1      0.1090 284512.000
   28     3     1      0.1090 284512.000
   29     3     1      0.1090 284512.000
   30     4     1      0.0945 462750.400
   31     6     1      0.1090 284512.000
   32     8     1      0.1090 284512.000
   33    10     1      0.1090 284512.000
   34    11     1      0.1090 284512.000
   35    11     1      0.1090 284512.000
   36    12     1      0.0945 462750.400
   37    13     1      0.1090 284512.000
   38    14     1      0.0945 462750.400
   39    15     1      0.1090 284512.000
   40    16     1      0.0945 462750.400
   41    17     1      0.1090 284512.000
   42    18     1      0.0945 462750.400
   43    19     1      0.1090 284512.000
   44    20     1      0.0945 462750.400
   45    21     1      0.1090 284512.000
   46    22     1      0.0945 462750.400
   47    23     1      0.1090 284512.000
   48    24     1      0.0945 462750.400
   17    15     1      0.1529 224262.400
   23    21     1      0.1529 224262.400

[ angles ]
;  ai    aj    ak funct            c0            c1            c2            c3 
    1     2     3     1    112.700    488.273
    2     3     4     1    109.500    418.400
    1     2     5     1    109.500    418.400
    2     5     6     1    109.500    502.080
    5     6     7     1    111.550    774.877
    6     7     8     1    109.500    502.080
    7     8     9     1    111.550    774.877
    8     9    10     1    109.500    502.080
    9    10    11     1    109.500    418.400
   10    11    12     1    109.500    418.400
    9    10    13     1    109.500    418.400
   10    13    14     1    109.500    418.400
   10    13    15     1    112.700    488.273
   13    15    16     1    109.500    418.400
    7     8    17     1    109.500    418.400
    8    17    18     1    109.500    418.400
    5     6    19     1    109.500    418.400
    6    19    20     1    109.500    418.400
    6    19    21     1    112.700    488.273
   19    21    22     1    109.500    418.400
    1     2    23     1    112.700    488.273
    2    23    24     1    109.500    418.400
    2     1    25     1    110.700    313.800
    2     1    26     1    110.700    313.800
    2     1    27     1    110.700    313.800
    2     3    28     1    110.700    313.800
    2     3    29     1    110.700    313.800
    3     4    30     1    108.500    460.240
    5     6    31     1    109.500    292.880
    7     8    32     1    109.500    292.880
    9    10    33     1    109.500    292.880
   10    11    34     1    110.700    313.800
   10    11    35     1    110.700    313.800
   11    12    36     1    108.500    460.240
   10    13    37     1    110.700    313.800
   13    14    38     1    108.500    460.240
   13    15    39     1    110.700    313.800
   15    16    40     1    108.500    460.240
    8    17    41     1    110.700    313.800
   17    18    42     1    108.500    460.240
    6    19    43     1    110.700    313.800
   19    20    44     1    108.500    460.240
   19    21    45     1    110.700    313.800
   21    22    46     1    108.500    460.240
    2    23    47     1    110.700    313.800
   23    24    48     1    108.500    460.240
   11    10    33     1    110.700    313.800
   20    19    21     1    109.500    418.400
   20    19    43     1    109.500    292.880
   17     8    32     1    110.700    313.800
   14    13    15     1    109.500    418.400
   22    21    45     1    109.500    292.880
   16    15    17     1    109.500    418.400
   15    17    41     1    110.700    313.800
    2    23    21     1    112.700    488.273
    9     8    17     1    109.500    418.400
    7     6    31     1    109.500    292.880
    8    17    15     1    112.700    488.273
   13    10    33     1    110.700    313.800
   13    15    17     1    112.700    488.273
   22    21    23     1    109.500    418.400
   24    23    47     1    109.500    292.880
   28     3    29     1    107.800    276.144
   19     6    31     1    110.700    313.800
   17    15    39     1    110.700    313.800
   11    10    13     1    112.700    488.273
    4     3    29     1    109.500    292.880
    4     3    28     1    109.500    292.880
   23    21    45     1    110.700    313.800
   19    21    23     1    112.700    488.273
   12    11    35     1    109.500    292.880
   21    19    43     1    110.700    313.800
   16    15    39     1    109.500    292.880
   34    11    35     1    107.800    276.144
    3     2     5     1    109.500    418.400
   25     1    26     1    107.800    276.144
   12    11    34     1    109.500    292.880
   21    23    24     1    109.500    418.400
    9     8    32     1    109.500    292.880
   18    17    41     1    109.500    292.880
   25     1    27     1    107.800    276.144
   14    13    37     1    109.500    292.880
    5     2    23     1    109.500    418.400
   26     1    27     1    107.800    276.144
    3     2    23     1    112.700    488.273
    7     6    19     1    109.500    418.400
   21    23    47     1    110.700    313.800
   15    13    37     1    110.700    313.800
   15    17    18     1    109.500    418.400

[ dihedrals ]
; IMPROPER DIHEDRAL ANGLES 
;  ai    aj    ak    al funct            c0            c1            c2            c3            c4            c5

[ dihedrals ]
; PROPER DIHEDRAL ANGLES
;  ai    aj    ak    al funct            c0            c1            c2            c3            c4            c5
    8    7    6    5        3      -6.458   0.810   5.682  -0.033  -0.000   0.000
    6    5    2    3        3       1.715   2.845   1.046  -5.607  -0.000   0.000
    6    5    2    1        3       1.715   2.845   1.046  -5.607  -0.000   0.000
   17    8    7    6        3       1.715   2.845   1.046  -5.607  -0.000   0.000
   19    6    7    8        3       1.715   2.845   1.046  -5.607  -0.000   0.000
   19    6    5    2        3       1.715   2.845   1.046  -5.607  -0.000   0.000
   17    8    9   10        3       1.715   2.845   1.046  -5.607  -0.000   0.000
   21   19    6    7        3       2.874   0.582   2.092  -5.548  -0.000   0.000
   15   17    8    7        3       2.874   0.582   2.092  -5.548  -0.000   0.000
   21   19    6    5        3       2.874   0.582   2.092  -5.548  -0.000   0.000
   15   17    8    9        3       2.874   0.582   2.092  -5.548  -0.000   0.000
   13   15   17    8        3       2.301  -1.464   0.837  -1.674  -0.000   0.000
   23   21   19    6        3       2.301  -1.464   0.837  -1.674  -0.000   0.000
   19   21   23    2        3       2.301  -1.464   0.837  -1.674  -0.000   0.000
   21   23    2    3        3       2.301  -1.464   0.837  -1.674  -0.000   0.000
   15   13   10   11        3       2.301  -1.464   0.837  -1.674  -0.000   0.000
   21   23    2    1        3       2.301  -1.464   0.837  -1.674  -0.000   0.000
   17   15   13   10        3       2.301  -1.464   0.837  -1.674  -0.000   0.000
   23    2    3    4        3      -3.247   3.247   0.000  -0.000  -0.000   0.000
   23   21   19   20        3      -3.247   3.247   0.000  -0.000  -0.000   0.000
   17   15   13   14        3      -3.247   3.247   0.000  -0.000  -0.000   0.000
   13   10   11   12        3      -3.247   3.247   0.000  -0.000  -0.000   0.000
   21   23    2    5        3       2.874   0.582   2.092  -5.548  -0.000   0.000
   15   13   10    9        3       2.874   0.582   2.092  -5.548  -0.000   0.000
   23    2    5    6        3       1.715   2.845   1.046  -5.607  -0.000   0.000
   11   10    9    8        3       1.715   2.845   1.046  -5.607  -0.000   0.000
   13   10    9    8        3       1.715   2.845   1.046  -5.607  -0.000   0.000
   10    9    8    7        3      -6.458   0.810   5.682  -0.033  -0.000   0.000
   32    8   17   15        3       0.628   1.883   0.000  -2.510  -0.000   0.000
   31    6   19   21        3       0.628   1.883   0.000  -2.510  -0.000   0.000
   31    6   19   20        3       0.979   2.937   0.000  -3.916  -0.000   0.000
   32    8   17   18        3       0.979   2.937   0.000  -3.916  -0.000   0.000
   32    8    7    6        3       1.590   4.770   0.000  -6.360  -0.000   0.000
   31    6    7    8        3       1.590   4.770   0.000  -6.360  -0.000   0.000
   32    8    9   10        3       1.590   4.770   0.000  -6.360  -0.000   0.000
   31    6    5    2        3       1.590   4.770   0.000  -6.360  -0.000   0.000
   41   17    8   32        3       0.628   1.883   0.000  -2.510  -0.000   0.000
   43   19    6   31        3       0.628   1.883   0.000  -2.510  -0.000   0.000
   43   19    6    7        3       0.979   2.937   0.000  -3.916  -0.000   0.000
   41   17    8    7        3       0.979   2.937   0.000  -3.916  -0.000   0.000
   41   17    8    9        3       0.979   2.937   0.000  -3.916  -0.000   0.000
   43   19    6    5        3       0.979   2.937   0.000  -3.916  -0.000   0.000
   39   15   17    8        3       0.628   1.883   0.000  -2.510  -0.000   0.000
   45   21   19    6        3       0.628   1.883   0.000  -2.510  -0.000   0.000
   37   13   10   11        3       0.628   1.883   0.000  -2.510  -0.000   0.000
   25    1    2   23        3       0.628   1.883   0.000  -2.510  -0.000   0.000
   27    1    2   23        3       0.628   1.883   0.000  -2.510  -0.000   0.000
   29    3    2    1        3       0.628   1.883   0.000  -2.510  -0.000   0.000
   47   23    2    1        3       0.628   1.883   0.000  -2.510  -0.000   0.000
   33   10   13   15        3       0.628   1.883   0.000  -2.510  -0.000   0.000
   43   19   21   23        3       0.628   1.883   0.000  -2.510  -0.000   0.000
   28    3    2   23        3       0.628   1.883   0.000  -2.510  -0.000   0.000
   35   11   10   13        3       0.628   1.883   0.000  -2.510  -0.000   0.000
   27    1    2    3        3       0.628   1.883   0.000  -2.510  -0.000   0.000
   26    1    2    3        3       0.628   1.883   0.000  -2.510  -0.000   0.000
   47   23    2    3        3       0.628   1.883   0.000  -2.510  -0.000   0.000
   37   13   15   17        3       0.628   1.883   0.000  -2.510  -0.000   0.000
   45   21   23    2        3       0.628   1.883   0.000  -2.510  -0.000   0.000
   25    1    2    3        3       0.628   1.883   0.000  -2.510  -0.000   0.000
   41   17   15   13        3       0.628   1.883   0.000  -2.510  -0.000   0.000
   39   15   13   10        3       0.628   1.883   0.000  -2.510  -0.000   0.000
   47   23   21   19        3       0.628   1.883   0.000  -2.510  -0.000   0.000
   26    1    2   23        3       0.628   1.883   0.000  -2.510  -0.000   0.000
   34   11   10   13        3       0.628   1.883   0.000  -2.510  -0.000   0.000
   28    3    2    1        3       0.628   1.883   0.000  -2.510  -0.000   0.000
   29    3    2   23        3       0.628   1.883   0.000  -2.510  -0.000   0.000
   34   11   10   33        3       0.628   1.883   0.000  -2.510  -0.000   0.000
   47   23   21   45        3       0.628   1.883   0.000  -2.510  -0.000   0.000
   45   21   19   43        3       0.628   1.883   0.000  -2.510  -0.000   0.000
   37   13   10   33        3       0.628   1.883   0.000  -2.510  -0.000   0.000
   35   11   10   33        3       0.628   1.883   0.000  -2.510  -0.000   0.000
   39   15   13   37        3       0.628   1.883   0.000  -2.510  -0.000   0.000
   41   17   15   39        3       0.628   1.883   0.000  -2.510  -0.000   0.000
   45   21   19   20        3       0.979   2.937   0.000  -3.916  -0.000   0.000
   39   15   13   14        3       0.979   2.937   0.000  -3.916  -0.000   0.000
   47   23   21   22        3       0.979   2.937   0.000  -3.916  -0.000   0.000
   41   17   15   16        3       0.979   2.937   0.000  -3.916  -0.000   0.000
   37   13   15   16        3       0.979   2.937   0.000  -3.916  -0.000   0.000
   33   10   11   12        3       0.979   2.937   0.000  -3.916  -0.000   0.000
   39   15   17   18        3       0.979   2.937   0.000  -3.916  -0.000   0.000
   43   19   21   22        3       0.979   2.937   0.000  -3.916  -0.000   0.000
   45   21   23   24        3       0.979   2.937   0.000  -3.916  -0.000   0.000
   33   10   13   14        3       0.979   2.937   0.000  -3.916  -0.000   0.000
   34   11   10    9        3       0.979   2.937   0.000  -3.916  -0.000   0.000
   26    1    2    5        3       0.979   2.937   0.000  -3.916  -0.000   0.000
   37   13   10    9        3       0.979   2.937   0.000  -3.916  -0.000   0.000
   35   11   10    9        3       0.979   2.937   0.000  -3.916  -0.000   0.000
   29    3    2    5        3       0.979   2.937   0.000  -3.916  -0.000   0.000
   28    3    2    5        3       0.979   2.937   0.000  -3.916  -0.000   0.000
   47   23    2    5        3       0.979   2.937   0.000  -3.916  -0.000   0.000
   25    1    2    5        3       0.979   2.937   0.000  -3.916  -0.000   0.000
   27    1    2    5        3       0.979   2.937   0.000  -3.916  -0.000   0.000
   33   10    9    8        3       1.590   4.770   0.000  -6.360  -0.000   0.000
   42   18   17    8        3      -0.444   3.833   0.728  -4.117  -0.000   0.000
   44   20   19    6        3      -0.444   3.833   0.728  -4.117  -0.000   0.000
   46   22   21   23        3      -0.444   3.833   0.728  -4.117  -0.000   0.000
   40   16   15   17        3      -0.444   3.833   0.728  -4.117  -0.000   0.000
   48   24   23   21        3      -0.444   3.833   0.728  -4.117  -0.000   0.000
   46   22   21   19        3      -0.444   3.833   0.728  -4.117  -0.000   0.000
   48   24   23    2        3      -0.444   3.833   0.728  -4.117  -0.000   0.000
   40   16   15   13        3      -0.444   3.833   0.728  -4.117  -0.000   0.000
   38   14   13   10        3      -0.444   3.833   0.728  -4.117  -0.000   0.000
   38   14   13   15        3      -0.444   3.833   0.728  -4.117  -0.000   0.000
   36   12   11   10        3      -0.444   3.833   0.728  -4.117  -0.000   0.000
   30    4    3    2        3      -0.444   3.833   0.728  -4.117  -0.000   0.000
   42   18   17   15        3      -0.444   3.833   0.728  -4.117  -0.000   0.000
   44   20   19   21        3      -0.444   3.833   0.728  -4.117  -0.000   0.000
   36   12   11   34        3       0.736   2.209   0.000  -2.946  -0.000   0.000
   38   14   13   37        3       0.736   2.209   0.000  -2.946  -0.000   0.000
   40   16   15   39        3       0.736   2.209   0.000  -2.946  -0.000   0.000
   36   12   11   35        3       0.736   2.209   0.000  -2.946  -0.000   0.000
   44   20   19   43        3       0.736   2.209   0.000  -2.946  -0.000   0.000
   46   22   21   45        3       0.736   2.209   0.000  -2.946  -0.000   0.000
   42   18   17   41        3       0.736   2.209   0.000  -2.946  -0.000   0.000
   30    4    3   28        3       0.736   2.209   0.000  -2.946  -0.000   0.000
   30    4    3   29        3       0.736   2.209   0.000  -2.946  -0.000   0.000
   48   24   23   47        3       0.736   2.209   0.000  -2.946  -0.000   0.000
   18   17    8    9        3       9.035  -9.035   0.000  -0.000  -0.000   0.000
   20   19    6    7        3       9.035  -9.035   0.000  -0.000  -0.000   0.000
   18   17    8    7        3       9.035  -9.035   0.000  -0.000  -0.000   0.000
   20   19    6    5        3       9.035  -9.035   0.000  -0.000  -0.000   0.000
   16   15   17    8        3      -3.247   3.247   0.000  -0.000  -0.000   0.000
   22   21   19    6        3      -3.247   3.247   0.000  -0.000  -0.000   0.000
    4    3    2    1        3      -3.247   3.247   0.000  -0.000  -0.000   0.000
   22   21   23    2        3      -3.247   3.247   0.000  -0.000  -0.000   0.000
   16   15   13   10        3      -3.247   3.247   0.000  -0.000  -0.000   0.000
   18   17   15   13        3      -3.247   3.247   0.000  -0.000  -0.000   0.000
   14   13   10   11        3      -3.247   3.247   0.000  -0.000  -0.000   0.000
   24   23    2    1        3      -3.247   3.247   0.000  -0.000  -0.000   0.000
   24   23    2    3        3      -3.247   3.247   0.000  -0.000  -0.000   0.000
   24   23   21   19        3      -3.247   3.247   0.000  -0.000  -0.000   0.000
   16   15   13   14        3      19.891  -19.891   0.000  -0.000  -0.000   0.000
   22   21   19   20        3      19.891  -19.891   0.000  -0.000  -0.000   0.000
   24   23   21   22        3      19.891  -19.891   0.000  -0.000  -0.000   0.000
   18   17   15   16        3      19.891  -19.891   0.000  -0.000  -0.000   0.000
   14   13   10    9        3       9.035  -9.035   0.000  -0.000  -0.000   0.000
   12   11   10    9        3       9.035  -9.035   0.000  -0.000  -0.000   0.000
   24   23    2    5        3       9.035  -9.035   0.000  -0.000  -0.000   0.000
    9    8    7    6        3      -6.458   0.810   5.682  -0.033  -0.000   0.000
    7    6    5    2        3      -6.458   0.810   5.682  -0.033  -0.000   0.000
    5    2    3    4        3       9.035  -9.035   0.000  -0.000  -0.000   0.000

[ pairs ]
     1     4    1
     1     6    1
     4     5    1
     3     6    1
     2     7    1
     5     8    1
     6     9    1
     7    10    1
     8    11    1
     9    12    1
     8    13    1
     2    19    1
     7    15    1
     1    21    1
     9    14    1
     6    17    1
     9    15    1
     8    16    1
     3    21    1
     2    22    1
    12    13    1
    11    14    1
     7    18    1
     5    20    1
     1    24    1
    11    15    1
    10    16    1
     5    21    1
    10    17    1
     9    18    1
     8    19    1
     7    20    1
     4    23    1
     3    24    1
     7    21    1
     6    22    1
     3    25    1
     6    23    1
     5    24    1
     3    26    1
     1    28    1
    14    16    1
     5    25    1
     3    27    1
     1    29    1
    14    17    1
    13    18    1
     5    26    1
     5    27    1
     2    30    1
     5    28    1
     2    31    1
    16    18    1
     5    29    1
     6    32    1
     8    31    1
     8    33    1
    20    22    1
    10    32    1
    20    23    1
    19    24    1
     9    34    1
     9    35    1
    12    33    1
    22    24    1
    10    36    1
     9    37    1
    15    32    1
    14    33    1
    13    34    1
     8    39    1
     2    45    1
    23    25    1
    15    33    1
    13    35    1
    11    37    1
    10    38    1
     7    41    1
     5    43    1
     1    47    1
    23    26    1
    10    39    1
    23    27    1
    18    32    1
     9    41    1
     8    42    1
     7    43    1
     6    44    1
     3    47    1
     2    48    1
    23    28    1
    20    31    1
     6    45    1
    23    29    1
    21    31    1
     5    47    1
    16    37    1
    15    38    1
    14    39    1
    13    40    1
    17    37    1
    13    41    1
    18    39    1
    17    40    1
    16    41    1
    15    42    1
    28    30    1
    29    30    1
    22    43    1
    21    44    1
    20    45    1
    19    46    1
    23    43    1
    19    47    1
    33    34    1
    33    35    1
    24    45    1
    23    46    1
    22    47    1
    21    48    1
    34    36    1
    33    37    1
    35    36    1
    32    41    1
    31    43    1
    37    38    1
    37    39    1
    39    40    1
    39    41    1
    41    42    1
    43    44    1
    43    45    1
    45    46    1
    45    47    1
    47    48    1

