[ defaults ]
; nbfunc        comb-rule       gen-pairs       fudgeLJ fudgeQQ
1               3               yes             0.5     0.5
; GENERATED BY LigParGen Server
; Jorgensen Lab @ Yale University 
;
[ atomtypes ]
  opls_818  H818     1.0080     0.000    A    2.50000E-01   1.25520E-01
  opls_803  O803    15.9990     0.000    A    2.90000E-01   5.85760E-01
  opls_812  H812     1.0080     0.000    A    0.00000E+00   0.00000E+00
  opls_800  O800    15.9990     0.000    A    3.12000E-01   7.11280E-01
  opls_813  H813     1.0080     0.000    A    2.50000E-01   1.25520E-01
  opls_817  H817     1.0080     0.000    A    0.00000E+00   0.00000E+00
  opls_802  C802    12.0110     0.000    A    3.50000E-01   2.76144E-01
  opls_815  H815     1.0080     0.000    A    2.50000E-01   1.25520E-01
  opls_801  C801    12.0110     0.000    A    3.50000E-01   2.76144E-01
  opls_822  H822     1.0080     0.000    A    2.50000E-01   1.25520E-01
  opls_814  H814     1.0080     0.000    A    2.50000E-01   1.25520E-01
  opls_804  C804    12.0110     0.000    A    3.50000E-01   2.76144E-01
  opls_820  H820     1.0080     0.000    A    2.50000E-01   1.25520E-01
  opls_819  H819     1.0080     0.000    A    0.00000E+00   0.00000E+00
  opls_811  O811    15.9990     0.000    A    3.12000E-01   7.11280E-01
  opls_816  H816     1.0080     0.000    A    2.50000E-01   1.25520E-01
  opls_806  C806    12.0110     0.000    A    3.50000E-01   2.76144E-01
  opls_807  O807    15.9990     0.000    A    3.12000E-01   7.11280E-01
  opls_805  O805    15.9990     0.000    A    3.12000E-01   7.11280E-01
  opls_810  C810    12.0110     0.000    A    3.50000E-01   2.76144E-01
  opls_808  C808    12.0110     0.000    A    3.50000E-01   2.76144E-01
  opls_823  H823     1.0080     0.000    A    0.00000E+00   0.00000E+00
  opls_821  H821     1.0080     0.000    A    0.00000E+00   0.00000E+00
  opls_809  O809    15.9990     0.000    A    3.12000E-01   7.11280E-01
OWT4 OW 8 15.999 0.000 A 3.16500e-01 7.73202e-01
 HW   HW 1 1.008  0.520 A 0.00000e+00 0.00000e+00
 IW   MW 0 0.00000 -1.040 D 0.00000e+00 0.00000e+00
 
[ moleculetype ]
; Name               nrexcl
GLU                   3
[ atoms ]
;   nr       type  resnr residue  atom   cgnr     charge       mass  
     1   opls_800      1    GLU   O00      1    -0.6905    15.9990 
     2   opls_801      1    GLU   C01      1     0.0863    12.0110 
     3   opls_802      1    GLU   C02      1      0.046    12.0110 
     4   opls_803      1    GLU   O03      1    -0.3901    15.9990 
     5   opls_804      1    GLU   C04      1     0.1986    12.0110 
     6   opls_805      1    GLU   O05      1    -0.5454    15.9990 
     7   opls_806      1    GLU   C06      1     0.0632    12.0110 
     8   opls_807      1    GLU   O07      1    -0.6969    15.9990 
     9   opls_808      1    GLU   C08      1     0.1401    12.0110 
    10   opls_809      1    GLU   O09      1    -0.6611    15.9990 
    11   opls_810      1    GLU   C0A      1     0.0923    12.0110 
    12   opls_811      1    GLU   O0B      1    -0.7126    15.9990 
    13   opls_812      1    GLU   H0C      1     0.4243     1.0080 
    14   opls_813      1    GLU   H0D      1     0.0852     1.0080 
    15   opls_814      1    GLU   H0E      1     0.0852     1.0080 
    16   opls_815      1    GLU   H0F      1     0.1426     1.0080 
    17   opls_816      1    GLU   H0G      1      0.124     1.0080 
    18   opls_817      1    GLU   H0H      1     0.4356     1.0080 
    19   opls_818      1    GLU   H0I      1     0.1629     1.0080 
    20   opls_819      1    GLU   H0J      1     0.4443     1.0080 
    21   opls_820      1    GLU   H0K      1     0.1507     1.0080 
    22   opls_821      1    GLU   H0M      1     0.4312     1.0080 
    23   opls_822      1    GLU   H0N      1     0.1519     1.0080 
    24   opls_823      1    GLU   H0O      1     0.4322     1.0080 
[ bonds ]
    2     1     1      0.1410 267776.000
    3     2     1      0.1529 224262.400
    4     3     1      0.1410 267776.000
    5     4     1      0.1380 267776.000
    6     5     1      0.1380 267776.000
    7     5     1      0.1529 224262.400
    8     7     1      0.1410 267776.000
    9     7     1      0.1529 224262.400
   10     9     1      0.1410 267776.000
   11     3     1      0.1529 224262.400
   12    11     1      0.1410 267776.000
   13     1     1      0.0945 462750.400
   14     2     1      0.1090 284512.000
   15     2     1      0.1090 284512.000
   16     3     1      0.1090 284512.000
   17     5     1      0.1090 284512.000
   18     6     1      0.0945 462750.400
   19     7     1      0.1090 284512.000
   20     8     1      0.0945 462750.400
   21     9     1      0.1090 284512.000
   22    10     1      0.0945 462750.400
   23    11     1      0.1090 284512.000
   24    12     1      0.0945 462750.400
   11     9     1      0.1529 224262.400

[ angles ]
;  ai    aj    ak funct            c0            c1            c2            c3 
    1     2     3     1    109.500    418.400
    2     3     4     1    109.500    418.400
    3     4     5     1    109.500    502.080
    4     5     6     1    111.550    774.877
    4     5     7     1    109.500    418.400
    5     7     8     1    109.500    418.400
    5     7     9     1    112.700    488.273
    7     9    10     1    109.500    418.400
    2     3    11     1    112.700    488.273
    3    11    12     1    109.500    418.400
    2     1    13     1    108.500    460.240
    1     2    14     1    109.500    292.880
    1     2    15     1    109.500    292.880
    2     3    16     1    110.700    313.800
    4     5    17     1    109.500    292.880
    5     6    18     1    108.500    460.240
    5     7    19     1    110.700    313.800
    7     8    20     1    108.500    460.240
    7     9    21     1    110.700    313.800
    9    10    22     1    108.500    460.240
    3    11    23     1    110.700    313.800
   11    12    24     1    108.500    460.240
    4     3    11     1    109.500    418.400
    3     2    14     1    110.700    313.800
    3     2    15     1    110.700    313.800
   11     9    21     1    110.700    313.800
   14     2    15     1    107.800    276.144
    8     7     9     1    109.500    418.400
    6     5    17     1    109.500    292.880
    7     9    11     1    112.700    488.273
    6     5     7     1    109.500    418.400
    8     7    19     1    109.500    292.880
    9    11    12     1    109.500    418.400
    3    11     9     1    112.700    488.273
   10     9    11     1    109.500    418.400
   10     9    21     1    109.500    292.880
   12    11    23     1    109.500    292.880
   11     3    16     1    110.700    313.800
    7     5    17     1    110.700    313.800
    9    11    23     1    110.700    313.800
    4     3    16     1    109.500    292.880
    9     7    19     1    110.700    313.800

[ dihedrals ]
; IMPROPER DIHEDRAL ANGLES 
;  ai    aj    ak    al funct            c0            c1            c2            c3            c4            c5

[ dihedrals ]
; PROPER DIHEDRAL ANGLES
;  ai    aj    ak    al funct            c0            c1            c2            c3            c4            c5
    5    4    3    2        3       1.715   2.845   1.046  -5.607  -0.000   0.000
    7    5    4    3        3       1.715   2.845   1.046  -5.607  -0.000   0.000
    9    7    5    6        3       2.874   0.582   2.092  -5.548  -0.000   0.000
    9    7    5    4        3       2.874   0.582   2.092  -5.548  -0.000   0.000
   11    9    7    5        3       2.301  -1.464   0.837  -1.674  -0.000   0.000
    9   11    3    2        3       2.301  -1.464   0.837  -1.674  -0.000   0.000
    7    9   11    3        3       2.301  -1.464   0.837  -1.674  -0.000   0.000
   11    9    7    8        3      -3.247   3.247   0.000  -0.000  -0.000   0.000
   11    3    2    1        3      -3.247   3.247   0.000  -0.000  -0.000   0.000
    9   11    3    4        3       2.874   0.582   2.092  -5.548  -0.000   0.000
   11    3    4    5        3       1.715   2.845   1.046  -5.607  -0.000   0.000
   17    5    7    9        3       0.628   1.883   0.000  -2.510  -0.000   0.000
   17    5    7    8        3       0.979   2.937   0.000  -3.916  -0.000   0.000
   17    5    4    3        3       1.590   4.770   0.000  -6.360  -0.000   0.000
   19    7    5   17        3       0.628   1.883   0.000  -2.510  -0.000   0.000
   19    7    5    6        3       0.979   2.937   0.000  -3.916  -0.000   0.000
   19    7    5    4        3       0.979   2.937   0.000  -3.916  -0.000   0.000
   21    9    7    5        3       0.628   1.883   0.000  -2.510  -0.000   0.000
   19    7    9   11        3       0.628   1.883   0.000  -2.510  -0.000   0.000
   23   11    3    2        3       0.628   1.883   0.000  -2.510  -0.000   0.000
   23   11    9    7        3       0.628   1.883   0.000  -2.510  -0.000   0.000
   14    2    3   11        3       0.628   1.883   0.000  -2.510  -0.000   0.000
   16    3   11    9        3       0.628   1.883   0.000  -2.510  -0.000   0.000
   15    2    3   11        3       0.628   1.883   0.000  -2.510  -0.000   0.000
   21    9   11    3        3       0.628   1.883   0.000  -2.510  -0.000   0.000
   16    3    2   15        3       0.628   1.883   0.000  -2.510  -0.000   0.000
   23   11    9   21        3       0.628   1.883   0.000  -2.510  -0.000   0.000
   23   11    3   16        3       0.628   1.883   0.000  -2.510  -0.000   0.000
   21    9    7   19        3       0.628   1.883   0.000  -2.510  -0.000   0.000
   16    3    2   14        3       0.628   1.883   0.000  -2.510  -0.000   0.000
   16    3    2    1        3       0.979   2.937   0.000  -3.916  -0.000   0.000
   21    9   11   12        3       0.979   2.937   0.000  -3.916  -0.000   0.000
   16    3   11   12        3       0.979   2.937   0.000  -3.916  -0.000   0.000
   19    7    9   10        3       0.979   2.937   0.000  -3.916  -0.000   0.000
   21    9    7    8        3       0.979   2.937   0.000  -3.916  -0.000   0.000
   23   11    9   10        3       0.979   2.937   0.000  -3.916  -0.000   0.000
   23   11    3    4        3       0.979   2.937   0.000  -3.916  -0.000   0.000
   14    2    3    4        3       0.979   2.937   0.000  -3.916  -0.000   0.000
   15    2    3    4        3       0.979   2.937   0.000  -3.916  -0.000   0.000
   15    2    1   13        3       0.736   2.209   0.000  -2.946  -0.000   0.000
   14    2    1   13        3       0.736   2.209   0.000  -2.946  -0.000   0.000
   16    3    4    5        3       1.590   4.770   0.000  -6.360  -0.000   0.000
   18    6    5    7        3      -0.444   3.833   0.728  -4.117  -0.000   0.000
   18    6    5   17        3       0.736   2.209   0.000  -2.946  -0.000   0.000
   18    6    5    4        3      -10.180   2.648   7.556  -0.025  -0.000   0.000
   20    8    7    5        3      -0.444   3.833   0.728  -4.117  -0.000   0.000
   22   10    9   11        3      -0.444   3.833   0.728  -4.117  -0.000   0.000
   24   12   11    9        3      -0.444   3.833   0.728  -4.117  -0.000   0.000
   13    1    2    3        3      -0.444   3.833   0.728  -4.117  -0.000   0.000
   20    8    7    9        3      -0.444   3.833   0.728  -4.117  -0.000   0.000
   24   12   11    3        3      -0.444   3.833   0.728  -4.117  -0.000   0.000
   22   10    9    7        3      -0.444   3.833   0.728  -4.117  -0.000   0.000
   24   12   11   23        3       0.736   2.209   0.000  -2.946  -0.000   0.000
   20    8    7   19        3       0.736   2.209   0.000  -2.946  -0.000   0.000
   22   10    9   21        3       0.736   2.209   0.000  -2.946  -0.000   0.000
    6    5    4    3        3      -6.458   0.810   5.682  -0.033  -0.000   0.000
    8    7    5    6        3      19.891  -19.891   0.000  -0.000  -0.000   0.000
    8    7    5    4        3       9.035  -9.035   0.000  -0.000  -0.000   0.000
   10    9    7    5        3      -3.247   3.247   0.000  -0.000  -0.000   0.000
   12   11    3    2        3      -3.247   3.247   0.000  -0.000  -0.000   0.000
   10    9   11    3        3      -3.247   3.247   0.000  -0.000  -0.000   0.000
   12   11    9    7        3      -3.247   3.247   0.000  -0.000  -0.000   0.000
   12   11    9   10        3      19.891  -19.891   0.000  -0.000  -0.000   0.000
   10    9    7    8        3      19.891  -19.891   0.000  -0.000  -0.000   0.000
   12   11    3    4        3       9.035  -9.035   0.000  -0.000  -0.000   0.000
    4    3    2    1        3       9.035  -9.035   0.000  -0.000  -0.000   0.000

[ pairs ]
     1     4    1
     2     5    1
     3     6    1
     3     7    1
     2     9    1
     4     8    1
     1    11    1
     4     9    1
     3    10    1
     6     8    1
     2    12    1
     6     9    1
     5    10    1
     5    11    1
     4    12    1
     3    13    1
     1    16    1
     8    10    1
     4    14    1
     8    11    1
     7    12    1
     4    15    1
     3    17    1
     5    16    1
    10    12    1
     4    18    1
     4    19    1
     3    21    1
    11    14    1
     9    16    1
     8    17    1
     7    18    1
     6    19    1
     5    20    1
     2    23    1
    11    15    1
     9    17    1
     5    21    1
    13    14    1
     4    23    1
     3    24    1
    13    15    1
    12    16    1
    10    19    1
     9    20    1
     8    21    1
     7    22    1
    14    16    1
    11    19    1
     7    23    1
    15    16    1
    12    21    1
    11    22    1
    10    23    1
     9    24    1
    17    18    1
    17    19    1
    19    20    1
    16    23    1
    19    21    1
    21    22    1
    21    23    1
    23    24    1

