[ defaults ]
; nbfunc        comb-rule       gen-pairs       fudgeLJ fudgeQQ
1               3               yes             0.5     0.5
; GENERATED BY LigParGen Server
; Jorgensen Lab @ Yale University 
;
[atomtypes ]
  opls_842  H842     1.0080     0.000    A    0.00000E+00   0.00000E+00
  opls_803  O803    15.9990     0.000    A    2.90000E-01   5.85760E-01
  opls_824  H824     1.0080     0.000    A    2.50000E-01   1.25520E-01
  opls_815  C815    12.0110     0.000    A    3.50000E-01   2.76144E-01
  opls_809  O809    15.9990     0.000    A    2.90000E-01   5.85760E-01
  opls_823  H823     1.0080     0.000    A    0.00000E+00   0.00000E+00
  opls_800  O800    15.9990     0.000    A    3.12000E-01   7.11280E-01
  opls_835  H835     1.0080     0.000    A    2.50000E-01   1.25520E-01
  opls_828  H828     1.0080     0.000    A    2.50000E-01   1.25520E-01
  opls_832  H832     1.0080     0.000    A    2.50000E-01   1.25520E-01
  opls_840  H840     1.0080     0.000    A    0.00000E+00   0.00000E+00
  opls_802  C802    12.0110     0.000    A    3.50000E-01   2.76144E-01
  opls_827  H827     1.0080     0.000    A    2.50000E-01   1.25520E-01
  opls_801  C801    12.0110     0.000    A    3.50000E-01   2.76144E-01
  opls_806  C806    12.0110     0.000    A    3.50000E-01   2.76144E-01
  opls_818  O818    15.9990     0.000    A    3.12000E-01   7.11280E-01
  opls_807  C807    12.0110     0.000    A    3.50000E-01   2.76144E-01
  opls_814  O814    15.9990     0.000    A    3.12000E-01   7.11280E-01
  opls_834  H834     1.0080     0.000    A    0.00000E+00   0.00000E+00
  opls_804  C804    12.0110     0.000    A    3.50000E-01   2.76144E-01
  opls_826  H826     1.0080     0.000    A    2.50000E-01   1.25520E-01
  opls_821  C821    12.0110     0.000    A    3.50000E-01   2.76144E-01
  opls_837  H837     1.0080     0.000    A    2.50000E-01   1.25520E-01
  opls_829  H829     1.0080     0.000    A    2.50000E-01   1.25520E-01
  opls_831  H831     1.0080     0.000    A    2.50000E-01   1.25520E-01
  opls_822  O822    15.9990     0.000    A    3.12000E-01   7.11280E-01
  opls_844  H844     1.0080     0.000    A    0.00000E+00   0.00000E+00
  opls_812  O812    15.9990     0.000    A    3.12000E-01   7.11280E-01
  opls_811  C811    12.0110     0.000    A    3.50000E-01   2.76144E-01
  opls_833  H833     1.0080     0.000    A    2.50000E-01   1.25520E-01
  opls_808  O808    15.9990     0.000    A    3.12000E-01   7.11280E-01
  opls_819  C819    12.0110     0.000    A    3.50000E-01   2.76144E-01
  opls_805  O805    15.9990     0.000    A    2.90000E-01   5.85760E-01
  opls_836  H836     1.0080     0.000    A    0.00000E+00   0.00000E+00
  opls_841  H841     1.0080     0.000    A    2.50000E-01   1.25520E-01
  opls_825  H825     1.0080     0.000    A    2.50000E-01   1.25520E-01
  opls_810  C810    12.0110     0.000    A    3.50000E-01   2.76144E-01
  opls_843  H843     1.0080     0.000    A    2.50000E-01   1.25520E-01
  opls_839  H839     1.0080     0.000    A    2.50000E-01   1.25520E-01
  opls_817  C817    12.0110     0.000    A    3.50000E-01   2.76144E-01
  opls_816  O816    15.9990     0.000    A    3.12000E-01   7.11280E-01
  opls_830  H830     1.0080     0.000    A    0.00000E+00   0.00000E+00
  opls_813  C813    12.0110     0.000    A    3.50000E-01   2.76144E-01
  opls_820  O820    15.9990     0.000    A    3.12000E-01   7.11280E-01
  opls_838  H838     1.0080     0.000    A    0.00000E+00   0.00000E+00
OWT4 OW 8 15.999 0.000 A 3.16500e-01 7.73202e-01
 HW   HW 1 1.008  0.520 A 0.00000e+00 0.00000e+00
 IW   MW 0 0.00000 -1.040 D 0.00000e+00 0.00000e+00
[ moleculetype ]
; Name               nrexcl
SAC                   3
[ atoms ]
;   nr       type  resnr residue  atom   cgnr     charge       mass  
     1   opls_800      1    UNK   O00      1    -0.7106    15.9990 
     2   opls_801      1    UNK   C01      1     0.0742    12.0110 
     3   opls_802      1    UNK   C02      1     0.0565    12.0110 
     4   opls_803      1    UNK   O03      1    -0.4099    15.9990 
     5   opls_804      1    UNK   C04      1     0.2054    12.0110 
     6   opls_805      1    UNK   O05      1    -0.3659    15.9990 
     7   opls_806      1    UNK   C06      1     0.2748    12.0110 
     8   opls_807      1    UNK   C07      1     0.0692    12.0110 
     9   opls_808      1    UNK   O08      1    -0.6616    15.9990 
    10   opls_809      1    UNK   O09      1    -0.3383    15.9990 
    11   opls_810      1    UNK   C0A      1    -0.0135    12.0110 
    12   opls_811      1    UNK   C0B      1     0.0978    12.0110 
    13   opls_812      1    UNK   O0C      1    -0.6856    15.9990 
    14   opls_813      1    UNK   C0D      1     0.1221    12.0110 
    15   opls_814      1    UNK   O0E      1    -0.6709    15.9990 
    16   opls_815      1    UNK   C0F      1     0.0909    12.0110 
    17   opls_816      1    UNK   O0G      1    -0.6757    15.9990 
    18   opls_817      1    UNK   C0H      1     0.1022    12.0110 
    19   opls_818      1    UNK   O0I      1    -0.7078    15.9990 
    20   opls_819      1    UNK   C0J      1     0.1378    12.0110 
    21   opls_820      1    UNK   O0K      1    -0.6597    15.9990 
    22   opls_821      1    UNK   C0M      1      0.115    12.0110 
    23   opls_822      1    UNK   O0N      1    -0.6923    15.9990 
    24   opls_823      1    UNK   H0O      1     0.4212     1.0080 
    25   opls_824      1    UNK   H0P      1     0.0912     1.0080 
    26   opls_825      1    UNK   H0Q      1     0.0912     1.0080 
    27   opls_826      1    UNK   H0R      1     0.1661     1.0080 
    28   opls_827      1    UNK   H0S      1      0.124     1.0080 
    29   opls_828      1    UNK   H0T      1     0.0991     1.0080 
    30   opls_829      1    UNK   H0U      1     0.0991     1.0080 
    31   opls_830      1    UNK   H0V      1     0.4131     1.0080 
    32   opls_831      1    UNK   H0W      1     0.1593     1.0080 
    33   opls_832      1    UNK   H0X      2     0.1043     1.0080 
    34   opls_833      1    UNK   H0Y      2     0.1043     1.0080 
    35   opls_834      1    UNK   H0Z      2     0.4266     1.0080 
    36   opls_835      1    UNK   H10      2     0.1372     1.0080 
    37   opls_836      1    UNK   H11      2      0.438     1.0080 
    38   opls_837      1    UNK   H12      2     0.1666     1.0080 
    39   opls_838      1    UNK   H13      2      0.421     1.0080 
    40   opls_839      1    UNK   H14      2     0.1442     1.0080 
    41   opls_840      1    UNK   H15      2     0.4455     1.0080 
    42   opls_841      1    UNK   H16      2     0.1652     1.0080 
    43   opls_842      1    UNK   H17      2     0.4311     1.0080 
    44   opls_843      1    UNK   H18      2     0.1541     1.0080 
    45   opls_844      1    UNK   H19      2     0.4435     1.0080 
[ bonds ]
    2     1     1      0.1410 267776.000
    3     2     1      0.1529 224262.400
    4     3     1      0.1410 267776.000
    5     4     1      0.1380 267776.000
    6     5     1      0.1380 267776.000
    7     6     1      0.1380 267776.000
    8     7     1      0.1529 224262.400
    9     8     1      0.1410 267776.000
   10     7     1      0.1380 267776.000
   11    10     1      0.1410 267776.000
   12    11     1      0.1529 224262.400
   13    12     1      0.1410 267776.000
   14    11     1      0.1529 224262.400
   15    14     1      0.1410 267776.000
   16     7     1      0.1529 224262.400
   17    16     1      0.1410 267776.000
   18     5     1      0.1529 224262.400
   19    18     1      0.1410 267776.000
   20    18     1      0.1529 224262.400
   21    20     1      0.1410 267776.000
   22     3     1      0.1529 224262.400
   23    22     1      0.1410 267776.000
   24     1     1      0.0945 462750.400
   25     2     1      0.1090 284512.000
   26     2     1      0.1090 284512.000
   27     3     1      0.1090 284512.000
   28     5     1      0.1090 284512.000
   29     8     1      0.1090 284512.000
   30     8     1      0.1090 284512.000
   31     9     1      0.0945 462750.400
   32    11     1      0.1090 284512.000
   33    12     1      0.1090 284512.000
   34    12     1      0.1090 284512.000
   35    13     1      0.0945 462750.400
   36    14     1      0.1090 284512.000
   37    15     1      0.0945 462750.400
   38    16     1      0.1090 284512.000
   39    17     1      0.0945 462750.400
   40    18     1      0.1090 284512.000
   41    19     1      0.0945 462750.400
   42    20     1      0.1090 284512.000
   43    21     1      0.0945 462750.400
   44    22     1      0.1090 284512.000
   45    23     1      0.0945 462750.400
   16    14     1      0.1529 224262.400
   22    20     1      0.1529 224262.400

[ angles ]
;  ai    aj    ak funct            c0            c1            c2            c3 
    1     2     3     1    109.500    418.400
    2     3     4     1    109.500    418.400
    3     4     5     1    109.500    502.080
    4     5     6     1    111.550    774.877
    5     6     7     1    109.500    502.080
    6     7     8     1    109.500    418.400
    7     8     9     1    109.500    418.400
    6     7    10     1    111.550    774.877
    7    10    11     1    109.500    502.080
   10    11    12     1    109.500    418.400
   11    12    13     1    109.500    418.400
   10    11    14     1    109.500    418.400
   11    14    15     1    109.500    418.400
    6     7    16     1    109.500    418.400
    7    16    17     1    109.500    418.400
    4     5    18     1    109.500    418.400
    5    18    19     1    109.500    418.400
    5    18    20     1    112.700    488.273
   18    20    21     1    109.500    418.400
    2     3    22     1    112.700    488.273
    3    22    23     1    109.500    418.400
    2     1    24     1    108.500    460.240
    1     2    25     1    109.500    292.880
    1     2    26     1    109.500    292.880
    2     3    27     1    110.700    313.800
    4     5    28     1    109.500    292.880
    7     8    29     1    110.700    313.800
    7     8    30     1    110.700    313.800
    8     9    31     1    108.500    460.240
   10    11    32     1    109.500    292.880
   11    12    33     1    110.700    313.800
   11    12    34     1    110.700    313.800
   12    13    35     1    108.500    460.240
   11    14    36     1    110.700    313.800
   14    15    37     1    108.500    460.240
    7    16    38     1    110.700    313.800
   16    17    39     1    108.500    460.240
    5    18    40     1    110.700    313.800
   18    19    41     1    108.500    460.240
   18    20    42     1    110.700    313.800
   20    21    43     1    108.500    460.240
    3    22    44     1    110.700    313.800
   22    23    45     1    108.500    460.240
    9     8    30     1    109.500    292.880
   25     2    26     1    107.800    276.144
   15    14    16     1    109.500    418.400
   14    11    32     1    110.700    313.800
    3     2    25     1    110.700    313.800
    3     2    26     1    110.700    313.800
    9     8    29     1    109.500    292.880
   16    14    36     1    110.700    313.800
   15    14    36     1    109.500    292.880
   19    18    20     1    109.500    418.400
    4     3    22     1    109.500    418.400
   13    12    34     1    109.500    292.880
    8     7    10     1    109.500    418.400
   13    12    33     1    109.500    292.880
   12    11    32     1    110.700    313.800
   21    20    42     1    109.500    292.880
   20    22    23     1    109.500    418.400
   33    12    34     1    107.800    276.144
   14    16    17     1    109.500    418.400
    3    22    20     1    112.700    488.273
    4     3    27     1    109.500    292.880
   14    16    38     1    110.700    313.800
   17    16    38     1    109.500    292.880
   20    18    40     1    110.700    313.800
   19    18    40     1    109.500    292.880
   11    14    16     1    112.700    488.273
   18    20    22     1    112.700    488.273
   22    20    42     1    110.700    313.800
   20    22    44     1    110.700    313.800
   23    22    44     1    109.500    292.880
   18     5    28     1    110.700    313.800
   10     7    16     1    109.500    418.400
   12    11    14     1    112.700    488.273
   21    20    22     1    109.500    418.400
   22     3    27     1    110.700    313.800
    7    16    14     1    112.700    488.273
   29     8    30     1    107.800    276.144
    6     5    28     1    109.500    292.880
    8     7    16     1    112.700    488.273
    6     5    18     1    109.500    418.400

[ dihedrals ]
; IMPROPER DIHEDRAL ANGLES 
;  ai    aj    ak    al funct            c0            c1            c2            c3            c4            c5

[ dihedrals ]
; PROPER DIHEDRAL ANGLES
;  ai    aj    ak    al funct            c0            c1            c2            c3            c4            c5
    7    6    5    4        3      -6.458   0.810   5.682  -0.033  -0.000   0.000
    5    4    3    2        3       1.715   2.845   1.046  -5.607  -0.000   0.000
   16    7    8    9        3      -3.247   3.247   0.000  -0.000  -0.000   0.000
   16    7    6    5        3       1.715   2.845   1.046  -5.607  -0.000   0.000
   18    5    6    7        3       1.715   2.845   1.046  -5.607  -0.000   0.000
    8    7    6    5        3       1.715   2.845   1.046  -5.607  -0.000   0.000
   18    5    4    3        3       1.715   2.845   1.046  -5.607  -0.000   0.000
   16    7   10   11        3       1.715   2.845   1.046  -5.607  -0.000   0.000
   14   16    7    8        3       2.301  -1.464   0.837  -1.674  -0.000   0.000
   14   16    7    6        3       2.874   0.582   2.092  -5.548  -0.000   0.000
   14   16    7   10        3       2.874   0.582   2.092  -5.548  -0.000   0.000
   20   18    5    6        3       2.874   0.582   2.092  -5.548  -0.000   0.000
   20   18    5    4        3       2.874   0.582   2.092  -5.548  -0.000   0.000
   11   14   16    7        3       2.301  -1.464   0.837  -1.674  -0.000   0.000
   22   20   18    5        3       2.301  -1.464   0.837  -1.674  -0.000   0.000
   18   20   22    3        3       2.301  -1.464   0.837  -1.674  -0.000   0.000
   20   22    3    2        3       2.301  -1.464   0.837  -1.674  -0.000   0.000
   16   14   11   12        3       2.301  -1.464   0.837  -1.674  -0.000   0.000
   22    3    2    1        3      -3.247   3.247   0.000  -0.000  -0.000   0.000
   14   11   12   13        3      -3.247   3.247   0.000  -0.000  -0.000   0.000
   22   20   18   19        3      -3.247   3.247   0.000  -0.000  -0.000   0.000
   16   14   11   10        3       2.874   0.582   2.092  -5.548  -0.000   0.000
   20   22    3    4        3       2.874   0.582   2.092  -5.548  -0.000   0.000
   22    3    4    5        3       1.715   2.845   1.046  -5.607  -0.000   0.000
   14   11   10    7        3       1.715   2.845   1.046  -5.607  -0.000   0.000
   12   11   10    7        3       1.715   2.845   1.046  -5.607  -0.000   0.000
   11   10    7    8        3       1.715   2.845   1.046  -5.607  -0.000   0.000
   11   10    7    6        3      -6.458   0.810   5.682  -0.033  -0.000   0.000
   28    5   18   20        3       0.628   1.883   0.000  -2.510  -0.000   0.000
   28    5   18   19        3       0.979   2.937   0.000  -3.916  -0.000   0.000
   28    5    6    7        3       1.590   4.770   0.000  -6.360  -0.000   0.000
   28    5    4    3        3       1.590   4.770   0.000  -6.360  -0.000   0.000
   29    8    7   16        3       0.628   1.883   0.000  -2.510  -0.000   0.000
   30    8    7   16        3       0.628   1.883   0.000  -2.510  -0.000   0.000
   38   16    7    8        3       0.628   1.883   0.000  -2.510  -0.000   0.000
   40   18    5   28        3       0.628   1.883   0.000  -2.510  -0.000   0.000
   30    8    7    6        3       0.979   2.937   0.000  -3.916  -0.000   0.000
   40   18    5    6        3       0.979   2.937   0.000  -3.916  -0.000   0.000
   38   16    7   10        3       0.979   2.937   0.000  -3.916  -0.000   0.000
   40   18    5    4        3       0.979   2.937   0.000  -3.916  -0.000   0.000
   30    8    7   10        3       0.979   2.937   0.000  -3.916  -0.000   0.000
   29    8    7   10        3       0.979   2.937   0.000  -3.916  -0.000   0.000
   29    8    7    6        3       0.979   2.937   0.000  -3.916  -0.000   0.000
   38   16    7    6        3       0.979   2.937   0.000  -3.916  -0.000   0.000
   42   20   18    5        3       0.628   1.883   0.000  -2.510  -0.000   0.000
   36   14   16    7        3       0.628   1.883   0.000  -2.510  -0.000   0.000
   26    2    3   22        3       0.628   1.883   0.000  -2.510  -0.000   0.000
   44   22   20   18        3       0.628   1.883   0.000  -2.510  -0.000   0.000
   36   14   11   12        3       0.628   1.883   0.000  -2.510  -0.000   0.000
   33   12   11   14        3       0.628   1.883   0.000  -2.510  -0.000   0.000
   34   12   11   14        3       0.628   1.883   0.000  -2.510  -0.000   0.000
   38   16   14   11        3       0.628   1.883   0.000  -2.510  -0.000   0.000
   27    3   22   20        3       0.628   1.883   0.000  -2.510  -0.000   0.000
   25    2    3   22        3       0.628   1.883   0.000  -2.510  -0.000   0.000
   44   22    3    2        3       0.628   1.883   0.000  -2.510  -0.000   0.000
   40   18   20   22        3       0.628   1.883   0.000  -2.510  -0.000   0.000
   42   20   22    3        3       0.628   1.883   0.000  -2.510  -0.000   0.000
   32   11   14   16        3       0.628   1.883   0.000  -2.510  -0.000   0.000
   44   22    3   27        3       0.628   1.883   0.000  -2.510  -0.000   0.000
   27    3    2   25        3       0.628   1.883   0.000  -2.510  -0.000   0.000
   27    3    2   26        3       0.628   1.883   0.000  -2.510  -0.000   0.000
   34   12   11   32        3       0.628   1.883   0.000  -2.510  -0.000   0.000
   44   22   20   42        3       0.628   1.883   0.000  -2.510  -0.000   0.000
   42   20   18   40        3       0.628   1.883   0.000  -2.510  -0.000   0.000
   38   16   14   36        3       0.628   1.883   0.000  -2.510  -0.000   0.000
   33   12   11   32        3       0.628   1.883   0.000  -2.510  -0.000   0.000
   36   14   11   32        3       0.628   1.883   0.000  -2.510  -0.000   0.000
   42   20   22   23        3       0.979   2.937   0.000  -3.916  -0.000   0.000
   32   11   12   13        3       0.979   2.937   0.000  -3.916  -0.000   0.000
   32   11   14   15        3       0.979   2.937   0.000  -3.916  -0.000   0.000
   40   18   20   21        3       0.979   2.937   0.000  -3.916  -0.000   0.000
   44   22   20   21        3       0.979   2.937   0.000  -3.916  -0.000   0.000
   42   20   18   19        3       0.979   2.937   0.000  -3.916  -0.000   0.000
   27    3    2    1        3       0.979   2.937   0.000  -3.916  -0.000   0.000
   36   14   16   17        3       0.979   2.937   0.000  -3.916  -0.000   0.000
   38   16   14   15        3       0.979   2.937   0.000  -3.916  -0.000   0.000
   27    3   22   23        3       0.979   2.937   0.000  -3.916  -0.000   0.000
   25    2    3    4        3       0.979   2.937   0.000  -3.916  -0.000   0.000
   36   14   11   10        3       0.979   2.937   0.000  -3.916  -0.000   0.000
   34   12   11   10        3       0.979   2.937   0.000  -3.916  -0.000   0.000
   44   22    3    4        3       0.979   2.937   0.000  -3.916  -0.000   0.000
   33   12   11   10        3       0.979   2.937   0.000  -3.916  -0.000   0.000
   26    2    3    4        3       0.979   2.937   0.000  -3.916  -0.000   0.000
   25    2    1   24        3       0.736   2.209   0.000  -2.946  -0.000   0.000
   26    2    1   24        3       0.736   2.209   0.000  -2.946  -0.000   0.000
   27    3    4    5        3       1.590   4.770   0.000  -6.360  -0.000   0.000
   32   11   10    7        3       1.590   4.770   0.000  -6.360  -0.000   0.000
   41   19   18    5        3      -0.444   3.833   0.728  -4.117  -0.000   0.000
   39   17   16    7        3      -0.444   3.833   0.728  -4.117  -0.000   0.000
   31    9    8    7        3      -0.444   3.833   0.728  -4.117  -0.000   0.000
   43   21   20   18        3      -0.444   3.833   0.728  -4.117  -0.000   0.000
   37   15   14   11        3      -0.444   3.833   0.728  -4.117  -0.000   0.000
   35   13   12   11        3      -0.444   3.833   0.728  -4.117  -0.000   0.000
   37   15   14   16        3      -0.444   3.833   0.728  -4.117  -0.000   0.000
   45   23   22    3        3      -0.444   3.833   0.728  -4.117  -0.000   0.000
   45   23   22   20        3      -0.444   3.833   0.728  -4.117  -0.000   0.000
   24    1    2    3        3      -0.444   3.833   0.728  -4.117  -0.000   0.000
   41   19   18   20        3      -0.444   3.833   0.728  -4.117  -0.000   0.000
   39   17   16   14        3      -0.444   3.833   0.728  -4.117  -0.000   0.000
   43   21   20   22        3      -0.444   3.833   0.728  -4.117  -0.000   0.000
   31    9    8   29        3       0.736   2.209   0.000  -2.946  -0.000   0.000
   39   17   16   38        3       0.736   2.209   0.000  -2.946  -0.000   0.000
   31    9    8   30        3       0.736   2.209   0.000  -2.946  -0.000   0.000
   41   19   18   40        3       0.736   2.209   0.000  -2.946  -0.000   0.000
   37   15   14   36        3       0.736   2.209   0.000  -2.946  -0.000   0.000
   35   13   12   34        3       0.736   2.209   0.000  -2.946  -0.000   0.000
   43   21   20   42        3       0.736   2.209   0.000  -2.946  -0.000   0.000
   35   13   12   33        3       0.736   2.209   0.000  -2.946  -0.000   0.000
   45   23   22   44        3       0.736   2.209   0.000  -2.946  -0.000   0.000
   17   16    7    8        3      -3.247   3.247   0.000  -0.000  -0.000   0.000
   19   18    5    4        3       9.035  -9.035   0.000  -0.000  -0.000   0.000
   17   16    7   10        3       9.035  -9.035   0.000  -0.000  -0.000   0.000
    9    8    7    6        3       9.035  -9.035   0.000  -0.000  -0.000   0.000
   17   16    7    6        3       9.035  -9.035   0.000  -0.000  -0.000   0.000
   19   18    5    6        3       9.035  -9.035   0.000  -0.000  -0.000   0.000
   21   20   18    5        3      -3.247   3.247   0.000  -0.000  -0.000   0.000
   15   14   16    7        3      -3.247   3.247   0.000  -0.000  -0.000   0.000
   23   22    3    2        3      -3.247   3.247   0.000  -0.000  -0.000   0.000
   15   14   11   12        3      -3.247   3.247   0.000  -0.000  -0.000   0.000
   17   16   14   11        3      -3.247   3.247   0.000  -0.000  -0.000   0.000
   23   22   20   18        3      -3.247   3.247   0.000  -0.000  -0.000   0.000
   21   20   22    3        3      -3.247   3.247   0.000  -0.000  -0.000   0.000
   17   16   14   15        3      19.891  -19.891   0.000  -0.000  -0.000   0.000
   23   22   20   21        3      19.891  -19.891   0.000  -0.000  -0.000   0.000
   21   20   18   19        3      19.891  -19.891   0.000  -0.000  -0.000   0.000
   15   14   11   10        3       9.035  -9.035   0.000  -0.000  -0.000   0.000
   23   22    3    4        3       9.035  -9.035   0.000  -0.000  -0.000   0.000
   13   12   11   10        3       9.035  -9.035   0.000  -0.000  -0.000   0.000
   10    7    8    9        3       9.035  -9.035   0.000  -0.000  -0.000   0.000
   10    7    6    5        3      -6.458   0.810   5.682  -0.033  -0.000   0.000
    6    5    4    3        3      -6.458   0.810   5.682  -0.033  -0.000   0.000
    4    3    2    1        3       9.035  -9.035   0.000  -0.000  -0.000   0.000

[ pairs ]
     1     4    1
     2     5    1
     3     6    1
     4     7    1
     5     8    1
     6     9    1
     5    10    1
     6    11    1
     9    10    1
     8    11    1
     7    12    1
     6    14    1
     5    16    1
     3    18    1
     8    14    1
     7    15    1
     2    20    1
    10    13    1
     6    17    1
     4    19    1
     1    22    1
     4    20    1
     3    21    1
    10    15    1
     9    16    1
     8    17    1
     7    18    1
     6    19    1
     2    23    1
     6    20    1
     5    21    1
    13    14    1
    12    15    1
    10    17    1
     5    22    1
     4    23    1
     3    24    1
    12    16    1
    11    17    1
     1    27    1
     4    25    1
     4    26    1
     3    28    1
    15    17    1
     5    27    1
     7    28    1
     6    29    1
     6    30    1
     7    31    1
    10    29    1
     7    32    1
    19    21    1
    10    30    1
    19    22    1
    18    23    1
    10    33    1
     7    36    1
    21    23    1
    10    34    1
     6    38    1
     4    40    1
    16    29    1
    13    32    1
     3    42    1
    16    30    1
    11    35    1
    10    36    1
     8    38    1
     7    39    1
     6    40    1
     5    41    1
     2    44    1
    22    25    1
    20    27    1
    19    28    1
    15    32    1
    14    33    1
     5    42    1
    22    26    1
    20    28    1
    16    32    1
    14    34    1
    12    36    1
    11    37    1
    10    38    1
     4    44    1
     3    45    1
    24    25    1
    11    38    1
    24    26    1
    23    27    1
    25    27    1
    26    27    1
    17    36    1
    16    37    1
    15    38    1
    14    39    1
    29    31    1
    30    31    1
    21    40    1
    20    41    1
    19    42    1
    18    43    1
    22    40    1
    18    44    1
    32    33    1
    23    42    1
    22    43    1
    21    44    1
    20    45    1
    32    34    1
    33    35    1
    32    36    1
    28    40    1
    34    35    1
    27    44    1
    36    37    1
    36    38    1
    38    39    1
    40    41    1
    40    42    1
    42    43    1
    42    44    1
    44    45    1

